  ==> Input File <==

--------------------------------------------------------------------------
import fcidump

molecule h2o {
    O
    H 1 0.96
    H 1 0.96 2 104.5
}

set {
    basis cc-pVDZ
    scf_type pk
    integrals_file H2O_INTDUMP
}

energy('fcidump')
--------------------------------------------------------------------------

    Molecular point group: c2v

    Geometry (in Angstrom), charge = 0, multiplicity = 1:

       Center              X                  Y                   Z
    ------------   -----------------  -----------------  -----------------
           O          0.000000000000     0.000000000000    -0.065775570538
           H          0.000000000000    -0.759061990794     0.521953018295
           H          0.000000000000     0.759061990794     0.521953018295

  Charge       = 0
  Multiplicity = 1
  Basis Set: CC-PVDZ
  Basis Set:

    Orbital Energies (a.u.)
    -----------------------

    Doubly Occupied:

       1A1   -20.550919     2A1    -1.335305     1B2    -0.697799
       3A1    -0.566090     1B1    -0.492954

  @RHF Final Energy:   -76.02665366167125

   => Energetics <=

    Nuclear Repulsion Energy =              9.1681932603875733
    One-Electron Energy =                -123.1035618503201050
    Two-Electron Energy =                  37.9087149282612685
    DFT Exchange-Correlation Energy =       0.0000000000000000
    Empirical Dispersion Energy =           0.0000000000000000
    PCM Polarization Energy =               0.0000000000000000
    EFP Energy =                            0.0000000000000000
    Total Energy =                        -76.0266536616712756
