  ==> Input File <==

--------------------------------------------------------------------------
molecule CO {
    C
    O 1 1.12832
}

plugin_load("fcidump/fcidump.so")

set basis cc-pVDZ
set reference rhf
set e_convergence 1e-12
set d_convergence 1e-12
set ints_tolerance 0.0

set fcidump integrals_file CO.ccpvdz.fcidump

scf()

plugin("fcidump.so")
--------------------------------------------------------------------------

    Molecular point group: c2v

    Geometry (in Angstrom), charge = 0, multiplicity = 1:

       Center              X                  Y                   Z
    ------------   -----------------  -----------------  -----------------
           C          0.000000000000     0.000000000000    -0.644666444202
           O          0.000000000000     0.000000000000     0.483653555798

  Charge       = 0
  Multiplicity = 1
  Basis Set: CC-PVDZ
  Basis Set:

    Orbital Energies (a.u.)
    -----------------------

    Doubly Occupied:

       1A1   -20.669332     2A1   -11.366671     3A1    -1.522855
       4A1    -0.802097     1B1    -0.634366     1B2    -0.634366
       5A1    -0.548829

  @RHF Final Energy:  -112.74928159541057

   => Energetics <=

    Nuclear Repulsion Energy =             22.5117927647475895
    One-Electron Energy =                -198.1651173155403001
    Two-Electron Energy =                  62.9040429553821525
    DFT Exchange-Correlation Energy =       0.0000000000000000
    Empirical Dispersion Energy =           0.0000000000000000
    PCM Polarization Energy =               0.0000000000000000
    EFP Energy =                            0.0000000000000000
    Total Energy =                       -112.7492815954105652
